0 	-3.44728e-20 	-0.887717 	4.55958e-19
5.00501e-05 	5.02232e-06 	-0.901005 	-0.0730069
0.0001001 	-2.78153e-06 	-0.963977 	-0.149271
0.00015015 	9.87434e-05 	-1.09988 	-0.22157
0.0002002 	4.25376e-05 	-1.20827 	-0.274528
0.00025025 	0.000152186 	-1.27269 	-0.31724
0.0003003 	0.000131732 	-1.33317 	-0.348922
0.00035035 	0.000117056 	-1.39102 	-0.369574
0.0004004 	0.000264177 	-1.44394 	-0.384396
0.00045045 	1.69232e-05 	-1.4953 	-0.384835
0.000500501 	0.000408744 	-1.53638 	-0.37187
0.000550551 	0.000175087 	-1.56259 	-0.353974
0.000600601 	0.000145189 	-1.57226 	-0.335102
0.000650651 	0.000181028 	-1.56574 	-0.328064
0.000700701 	1.74114e-05 	-1.55034 	-0.336226
0.000750751 	-2.00724e-05 	-1.52955 	-0.356663
0.000800801 	-5.90862e-05 	-1.51049 	-0.387288
0.000850851 	-8.32334e-06 	-1.49491 	-0.421127
0.000900901 	-9.03168e-05 	-1.47969 	-0.460533
0.000950951 	-0.000100762 	-1.47042 	-0.502563
0.001001 	-1.66827e-05 	-1.46528 	-0.540465
0.00105105 	-4.79603e-05 	-1.45905 	-0.57891
0.0011011 	-6.49786e-05 	-1.45995 	-0.617048
0.00115115 	-2.37928e-05 	-1.45689 	-0.651081
0.0012012 	-1.45334e-05 	-1.44757 	-0.690711
0.00125125 	1.9361e-05 	-1.43688 	-0.723495
0.0013013 	0.000154729 	-1.41157 	-0.744592
0.00135135 	6.60225e-05 	-1.37903 	-0.748788
0.0014014 	3.29968e-05 	-1.33973 	-0.756562
0.00145145 	0.000122739 	-1.30186 	-0.762937
0.0015015 	0.000181603 	-1.26425 	-0.768744
0.00155155 	9.73829e-05 	-1.22942 	-0.77257
0.0016016 	1.0735e-05 	-1.19805 	-0.775283
0.00165165 	6.07934e-05 	-1.16566 	-0.777771
0.0017017 	0.000216116 	-1.11902 	-0.775355
0.00175175 	0.000295487 	-1.07878 	-0.772468
0.0018018 	0.000110196 	-1.05313 	-0.76202
0.00185185 	3.22324e-05 	-1.03817 	-0.765143
0.0019019 	3.39716e-05 	-1.00828 	-0.764657
0.00195195 	0.000103082 	-0.981668 	-0.762559
0.002002 	0.000170911 	-0.954453 	-0.759975
0.00205205 	0.000206313 	-0.926898 	-0.756843
0.0021021 	0.000147099 	-0.900524 	-0.753144
0.00215215 	9.09085e-05 	-0.87464 	-0.749237
0.0022022 	3.87192e-05 	-0.849241 	-0.744962
0.00225225 	9.87491e-06 	-0.82443 	-0.740334
0.0023023 	5.5727e-05 	-0.800181 	-0.735329
0.00235235 	9.79548e-05 	-0.776505 	-0.729997
0.0024024 	0.000137283 	-0.753431 	-0.724359
0.00245245 	0.000173097 	-0.730928 	-0.718419
0.0025025 	0.000205531 	-0.709021 	-0.71219
0.00255255 	0.000188662 	-0.687686 	-0.705721
0.0026026 	0.000160961 	-0.666939 	-0.698996
0.00265265 	0.000136266 	-0.646778 	-0.692061
0.0027027 	0.000114576 	-0.627212 	-0.684934
0.00275275 	9.58054e-05 	-0.608235 	-0.67766
0.0028028 	8.01019e-05 	-0.589838 	-0.670227
0.00285285 	6.71178e-05 	-0.572014 	-0.662685
0.0029029 	5.7151e-05 	-0.554757 	-0.655046
0.00295295 	4.97571e-05 	-0.538043 	-0.647337
0.003003 	4.51635e-05 	-0.521852 	-0.63956
0.00305305 	4.31269e-05 	-0.506197 	-0.631747
0.0031031 	4.35205e-05 	-0.491054 	-0.623926
0.00315315 	4.64323e-05 	-0.476392 	-0.616087
0.0032032 	5.14246e-05 	-0.462213 	-0.60827
0.00325325 	5.88719e-05 	-0.448504 	-0.60043
0.0033033 	6.77331e-05 	-0.435223 	-0.592718
0.00335335 	7.97633e-05 	-0.422388 	-0.584925
0.0034034 	9.19598e-05 	-0.409979 	-0.577249
0.00345345 	0.000107628 	-0.397981 	-0.5696
0.0035035 	0.000123492 	-0.386353 	-0.561971
0.00355355 	0.000141383 	-0.375114 	-0.554475
0.0036036 	0.000160761 	-0.364251 	-0.547003
0.00365365 	0.000146133 	-0.353735 	-0.539612
0.0037037 	0.00011873 	-0.343552 	-0.532306
0.00375375 	9.07653e-05 	-0.333713 	-0.525089
0.0038038 	6.13082e-05 	-0.324202 	-0.517921
0.00385385 	3.13956e-05 	-0.314989 	-0.510859
0.0039039 	5.55096e-07 	-0.306074 	-0.503873
0.00395395 	3.09637e-05 	-0.297459 	-0.496991
0.004004 	6.31321e-05 	-0.289107 	-0.490224
0.00405405 	9.59129e-05 	-0.281037 	-0.483511
0.0041041 	0.000129085 	-0.27323 	-0.476898
0.00415415 	0.000114689 	-0.26565 	-0.470396
0.0042042 	7.67724e-05 	-0.258319 	-0.464007
0.00425425 	3.74442e-05 	-0.251274 	-0.457626
0.0043043 	1.7134e-06 	-0.244371 	-0.451422
0.00435435 	4.08985e-05 	-0.237698 	-0.445373
0.0044044 	8.12967e-05 	-0.231333 	-0.439247
0.00445445 	0.000118982 	-0.225159 	-0.433232
0.0045045 	8.65056e-05 	-0.219032 	-0.427533
0.00455455 	4.45536e-05 	-0.213141 	-0.421807
0.0046046 	1.0236e-06 	-0.207504 	-0.416112
0.00465465 	4.26021e-05 	-0.202101 	-0.410486
0.0047047 	8.41649e-05 	-0.196827 	-0.404986
0.00475475 	9.76979e-05 	-0.191618 	-0.399661
0.0048048 	5.33574e-05 	-0.18656 	-0.39447
0.00485485 	7.19124e-06 	-0.181669 	-0.38928
0.0049049 	3.84962e-05 	-0.176986 	-0.384148
0.00495495 	8.23601e-05 	-0.172488 	-0.379083
0.00500501 	8.22092e-05 	-0.168121 	-0.374141
0.00505506 	3.30385e-05 	-0.163854 	-0.369224
0.00510511 	1.36328e-05 	-0.15973 	-0.364473
0.00515516 	6.02227e-05 	-0.155623 	-0.359748
0.00520521 	8.78661e-05 	-0.151676 	-0.355236
0.00525526 	4.02552e-05 	-0.147821 	-0.350652
0.00530531 	7.12561e-06 	-0.144166 	-0.346329
0.00535536 	5.62321e-05 	-0.140649 	-0.341751
0.00540541 	8.12375e-05 	-0.137201 	-0.337453
0.00545546 	3.18793e-05 	-0.133783 	-0.333255
0.00550551 	1.5624e-05 	-0.130466 	-0.329164
0.00555556 	6.31324e-05 	-0.127278 	-0.325079
0.00560561 	6.10693e-05 	-0.124168 	-0.32106
0.00565566 	1.21272e-05 	-0.121151 	-0.317109
0.00570571 	3.5642e-05 	-0.118248 	-0.313266
0.00575576 	7.92934e-05 	-0.115414 	-0.30945
0.00580581 	3.07929e-05 	-0.112634 	-0.305751
0.00585586 	1.74277e-05 	-0.109941 	-0.302061
0.00590591 	6.43079e-05 	-0.107336 	-0.298463
0.00595596 	4.09606e-05 	-0.104782 	-0.29494
0.00600601 	6.97337e-06 	-0.102304 	-0.291486
0.00605606 	5.40045e-05 	-0.0999527 	-0.288109
0.00610611 	4.4447e-05 	-0.0976455 	-0.284733
0.00615616 	3.43008e-06 	-0.0953758 	-0.281445
0.00620621 	5.02429e-05 	-0.0931543 	-0.278238
0.00625626 	4.19086e-05 	-0.0909886 	-0.275016
0.00630631 	5.6368e-06 	-0.0888968 	-0.271906
0.00635636 	5.26716e-05 	-0.0868574 	-0.268821
0.00640641 	3.36762e-05 	-0.0848686 	-0.265802
0.00645646 	1.28305e-05 	-0.0829461 	-0.262866
0.00650651 	5.86047e-05 	-0.0810978 	-0.259994
0.00655656 	2.16506e-05 	-0.0793056 	-0.257122
0.00660661 	2.38797e-05 	-0.0775481 	-0.254375
0.00665666 	5.25276e-05 	-0.0757818 	-0.251638
0.00670671 	5.94674e-06 	-0.0740651 	-0.248939
0.00675676 	2.50257e-05 	-0.0728079 	-0.247081
0.00680681 	8.95522e-06 	-0.0730834 	-0.247635
0.00685686 	1.01241e-05 	-0.0726414 	-0.246958
0.00690691 	5.94349e-05 	-0.0710758 	-0.244308
0.00695696 	1.14935e-05 	-0.069509 	-0.241631
0.00700701 	3.53152e-05 	-0.0679857 	-0.239006
0.00705706 	3.27723e-05 	-0.0664999 	-0.236424
0.00710711 	1.39927e-05 	-0.0650474 	-0.23388
0.00715716 	5.11051e-05 	-0.0636315 	-0.231378
0.00720721 	4.43762e-06 	-0.0622497 	-0.228919
0.00725726 	4.11892e-05 	-0.0609047 	-0.226506
0.00730731 	2.01082e-05 	-0.0595878 	-0.224124
0.00735736 	2.52981e-05 	-0.0583044 	-0.221786
0.00740741 	3.32785e-05 	-0.0570527 	-0.219489
0.00745746 	1.19101e-05 	-0.055828 	-0.217223
0.00750751 	4.40859e-05 	-0.0546349 	-0.215
0.00755756 	7.32588e-07 	-0.0534679 	-0.21281
0.00760761 	4.46123e-05 	-0.0523292 	-0.210657
0.00765766 	8.29818e-06 	-0.0512164 	-0.208539
0.00770771 	3.53022e-05 	-0.0501301 	-0.206453
0.00775776 	1.53943e-05 	-0.0490675 	-0.204402
0.00780781 	2.78166e-05 	-0.0480308 	-0.202384
0.00785786 	2.07552e-05 	-0.0470168 	-0.200394
0.00790791 	2.204e-05 	-0.0460262 	-0.19844
0.00795796 	2.45142e-05 	-0.0450574 	-0.196513
0.00800801 	1.78916e-05 	-0.0441105 	-0.194617
0.00805806 	2.6797e-05 	-0.0431853 	-0.192749
0.00810811 	1.52207e-05 	-0.04228 	-0.190909
0.00815816 	2.76945e-05 	-0.0413957 	-0.189098
0.00820821 	1.39028e-05 	-0.0405306 	-0.187311
0.00825826 	2.73291e-05 	-0.0396847 	-0.185553
0.00830831 	1.38305e-05 	-0.038857 	-0.183817
0.00835836 	2.5778e-05 	-0.0380478 	-0.18211
0.00840841 	1.48774e-05 	-0.0372568 	-0.180426
0.00845846 	2.32327e-05 	-0.0364832 	-0.178764
0.00850851 	1.69522e-05 	-0.0357255 	-0.177128
0.00855856 	1.97368e-05 	-0.0349859 	-0.175512
0.00860861 	1.99938e-05 	-0.0342612 	-0.173921
0.00865866 	1.53363e-05 	-0.0335523 	-0.172351
0.00870871 	2.39717e-05 	-0.0328603 	-0.1708
0.00875876 	1.00878e-05 	-0.0321813 	-0.169273
0.00880881 	2.87088e-05 	-0.0315185 	-0.167767
0.00885886 	4.14504e-06 	-0.0308701 	-0.166275
0.00890891 	3.40941e-05 	-0.0302357 	-0.16481
0.00895896 	2.4959e-06 	-0.0296132 	-0.163362
0.00900901 	2.83426e-05 	-0.0290075 	-0.161931
0.00905906 	9.78028e-06 	-0.0284137 	-0.160517
0.00910911 	1.9925e-05 	-0.0278314 	-0.159128
0.00915916 	1.76198e-05 	-0.0272623 	-0.157754
0.00920921 	1.11189e-05 	-0.0267068 	-0.156394
0.00925926 	2.59513e-05 	-0.0261637 	-0.155052
0.00930931 	1.79687e-06 	-0.0256295 	-0.153731
0.00935936 	2.87876e-05 	-0.0251083 	-0.152428
0.00940941 	7.95713e-06 	-0.0245988 	-0.151137
0.00945946 	1.81619e-05 	-0.0241015 	-0.149861
0.00950951 	1.80794e-05 	-0.0236147 	-0.148602
0.00955956 	7.15681e-06 	-0.023137 	-0.147361
0.00960961 	2.84557e-05 	-0.022669 	-0.146139
0.00965966 	4.09254e-06 	-0.0222115 	-0.144928
0.00970971 	1.96741e-05 	-0.0217658 	-0.143732
0.00975976 	1.56403e-05 	-0.0213295 	-0.142549
0.00980981 	7.37484e-06 	-0.0209027 	-0.141382
0.00985986 	2.73816e-05 	-0.0204856 	-0.140229
0.00990991 	5.10928e-06 	-0.0200768 	-0.13909
0.00995996 	1.65425e-05 	-0.0196766 	-0.137968
0.01001 	1.77305e-05 	-0.0192841 	-0.136861
0.0100601 	3.24919e-06 	-0.0189001 	-0.135766
0.0101101 	2.3686e-05 	-0.0185261 	-0.134684
0.0101602 	1.01777e-05 	-0.0181601 	-0.133615
0.0102102 	9.63212e-06 	-0.0178022 	-0.132559
0.0102603 	2.3658e-05 	-0.0174525 	-0.131516
0.0103103 	4.45674e-06 	-0.0171099 	-0.130485
0.0103604 	1.42311e-05 	-0.0167753 	-0.129468
0.0104104 	1.8579e-05 	-0.0164479 	-0.128462
0.0104605 	4.31539e-07 	-0.016127 	-0.127469
0.0105105 	1.72143e-05 	-0.015814 	-0.126489
0.0105606 	1.51039e-05 	-0.0155074 	-0.125519
0.0106106 	2.04325e-06 	-0.0152071 	-0.124561
0.0106607 	1.87291e-05 	-0.014914 	-0.123616
0.0107107 	1.30859e-05 	-0.0146269 	-0.122681
0.0107608 	3.1285e-06 	-0.0143458 	-0.121756
0.0108108 	1.89137e-05 	-0.0140713 	-0.120843
0.0108609 	1.23918e-05 	-0.0138023 	-0.119941
0.0109109 	2.95485e-06 	-0.0135391 	-0.119049
0.010961 	1.78999e-05 	-0.0132819 	-0.118167
0.011011 	1.29001e-05 	-0.01303 	-0.117295
0.0110611 	1.64492e-06 	-0.0127833 	-0.116433
0.0111111 	1.58001e-05 	-0.0125425 	-0.115581
0.0111612 	1.44812e-05 	-0.0123065 	-0.114738
0.0112112 	6.96668e-07 	-0.0120753 	-0.113904
0.0112613 	1.27152e-05 	-0.0118497 	-0.113081
0.0113113 	1.70507e-05 	-0.0116287 	-0.112266
0.0113614 	3.97652e-06 	-0.0114122 	-0.11146
0.0114114 	8.75512e-06 	-0.0112006 	-0.110664
0.0114615 	2.04842e-05 	-0.0109937 	-0.109876
0.0115115 	8.08981e-06 	-0.010791 	-0.109097
0.0115616 	4.0036e-06 	-0.0105928 	-0.108326
0.0116116 	1.57753e-05 	-0.0103991 	-0.107565
0.0116617 	1.29408e-05 	-0.0102095 	-0.106812
0.0117117 	1.45701e-06 	-0.0100238 	-0.106066
0.0117618 	9.71258e-06 	-0.00984266 	-0.10533
0.0118118 	1.84428e-05 	-0.00966536 	-0.104603
0.0118619 	7.55291e-06 	-0.00949179 	-0.103883
0.0119119 	3.06513e-06 	-0.00932211 	-0.103172
0.011962 	1.33836e-05 	-0.00915672 	-0.102469
0.012012 	1.41676e-05 	-0.00899547 	-0.101776
0.0120621 	4.09382e-06 	-0.00883817 	-0.10109
0.0121121 	5.70744e-06 	-0.00868438 	-0.100413
0.0121622 	1.52587e-05 	-0.00853357 	-0.0997431
0.0122122 	1.16998e-05 	-0.00838565 	-0.0990806
0.0122623 	2.36847e-06 	-0.00824074 	-0.0984253
0.0123123 	6.70044e-06 	-0.00809922 	-0.0977782
0.0123624 	1.55365e-05 	-0.00796081 	-0.0971388
0.0124124 	1.08079e-05 	-0.00782532 	-0.0965064
0.0124625 	2.16849e-06 	-0.00769269 	-0.0958811
0.0125125 	6.22381e-06 	-0.00756321 	-0.0952637
0.0125626 	1.43862e-05 	-0.00743681 	-0.0946539
0.0126126 	1.12846e-05 	-0.00731394 	-0.0940524
0.0126627 	3.30451e-06 	-0.00719435 	-0.0934589
0.0127127 	4.45721e-06 	-0.00707678 	-0.0928716
0.0127628 	1.20246e-05 	-0.00696108 	-0.09229
0.0128128 	1.30556e-05 	-0.00684747 	-0.0917142
0.0128629 	5.64564e-06 	-0.00673611 	-0.0911446
0.0129129 	1.56698e-06 	-0.00662738 	-0.0905824
0.012963 	8.53412e-06 	-0.00652253 	-0.0900301
0.013013 	1.53621e-05 	-0.00641971 	-0.0894843
0.0130631 	8.99621e-06 	-0.00631796 	-0.0889422
0.0131131 	2.30681e-06 	-0.00621784 	-0.0884051
0.0131632 	4.16773e-06 	-0.00612048 	-0.0878769
0.0132132 	1.04638e-05 	-0.00602613 	-0.0873574
0.0132633 	1.32182e-05 	-0.00593293 	-0.0868418
0.0133133 	7.02098e-06 	-0.00584091 	-0.0863313
0.0133634 	9.90275e-07 	-0.00575165 	-0.0858293
0.0134134 	4.8433e-06 	-0.00566444 	-0.0853341
0.0134635 	1.04972e-05 	-0.00557815 	-0.0848434
0.0135135 	1.23719e-05 	-0.00549398 	-0.0843608
0.0135636 	6.84233e-06 	-0.00541114 	-0.0838839
0.0136136 	1.42392e-06 	-0.00532998 	-0.0834124
0.0136637 	3.81192e-06 	-0.00525033 	-0.0829497
0.0137137 	8.88845e-06 	-0.00517179 	-0.0824919
0.0137638 	1.3175e-05 	-0.00509505 	-0.0820405
0.0138138 	8.17543e-06 	-0.00501956 	-0.0815955
0.0138639 	3.31689e-06 	-0.00494512 	-0.081157
0.0139139 	1.38219e-06 	-0.00487167 	-0.0807253
0.013964 	5.90821e-06 	-0.00479928 	-0.0803014
0.014014 	1.01749e-05 	-0.00472665 	-0.0798868
0.0140641 	1.03682e-05 	-0.00464881 	-0.0794914
0.0141141 	6.07308e-06 	-0.00456251 	-0.0791169
0.0141642 	2.05682e-06 	-0.00447505 	-0.0787575
0.0142142 	1.78863e-06 	-0.00438779 	-0.078402
0.0142643 	5.47458e-06 	-0.00429991 	-0.0780476
0.0143143 	9.03819e-06 	-0.0042112 	-0.0777043
0.0143644 	9.94531e-06 	-0.00412464 	-0.0773642
0.0144144 	6.39406e-06 	-0.00403968 	-0.0770239
0.0144645 	2.91573e-06 	-0.00395501 	-0.076685
0.0145145 	4.87596e-07 	-0.00387126 	-0.0763488
0.0145646 	3.78904e-06 	-0.00378883 	-0.0760169
0.0146146 	7.0057e-06 	-0.00370767 	-0.0756879
0.0146647 	1.01389e-05 	-0.00362665 	-0.0753618
0.0147147 	8.45482e-06 	-0.00354646 	-0.0750381
0.0147648 	5.36136e-06 	-0.00346728 	-0.0747167
0.0148148 	2.34274e-06 	-0.00338847 	-0.074399
0.0148649 	5.87471e-07 	-0.00331008 	-0.0740842
0.0149149 	3.45282e-06 	-0.00323332 	-0.0737703
0.014965 	6.25351e-06 	-0.00315856 	-0.0734569
0.015015 	8.97309e-06 	-0.00308487 	-0.0731453
0.0150651 	9.2435e-06 	-0.00301201 	-0.0728363
0.0151151 	6.56061e-06 	-0.00293996 	-0.07253
0.0151652 	3.94828e-06 	-0.00286872 	-0.0722262
0.0152152 	1.40596e-06 	-0.0027983 	-0.071925
0.0152653 	1.06225e-06 	-0.00272865 	-0.0716265
0.0153153 	3.45567e-06 	-0.00265978 	-0.0713308
0.0153654 	5.78129e-06 	-0.00259162 	-0.0710376
0.0154154 	8.03919e-06 	-0.00252417 	-0.0707471
0.0154655 	9.57684e-06 	-0.00245741 	-0.0704593
0.0155155 	7.33934e-06 	-0.00239136 	-0.0701742
0.0155656 	5.16566e-06 	-0.00232598 	-0.0698917
0.0156156 	3.05658e-06 	-0.00226129 	-0.069612
0.0156657 	1.01059e-06 	-0.0021972 	-0.069335
0.0157157 	9.672e-07 	-0.00213383 	-0.0690609
0.0157658 	2.87729e-06 	-0.00207106 	-0.0687898
0.0158158 	4.72585e-06 	-0.00200891 	-0.0685215
0.0158659 	6.51082e-06 	-0.00194738 	-0.068256
0.0159159 	8.23451e-06 	-0.0018864 	-0.0679936
0.015966 	8.53436e-06 	-0.00182597 	-0.0677342
0.016016 	6.80375e-06 	-0.00176601 	-0.0674777
0.0160661 	5.13202e-06 	-0.00170641 	-0.0672243
0.0161161 	3.51792e-06 	-0.00164706 	-0.0669737
0.0161662 	1.96049e-06 	-0.00158789 	-0.066726
0.0162162 	4.58043e-07 	-0.00152888 	-0.0664809
0.0162663 	9.86437e-07 	-0.00146999 	-0.0662385
0.0163163 	2.37779e-06 	-0.00141122 	-0.0659986
0.0163664 	3.71881e-06 	-0.00135254 	-0.0657611
0.0164164 	4.99708e-06 	-0.00129383 	-0.0655264
0.0164665 	6.26085e-06 	-0.00123498 	-0.0652943
0.0165165 	7.61397e-06 	-0.00117752 	-0.0650599
0.0165666 	8.69523e-06 	-0.00112243 	-0.0648177
0.0166166 	7.53463e-06 	-0.00106828 	-0.0645694
0.0166667 	6.35497e-06 	-0.00101436 	-0.0643184
0.0167167 	5.19915e-06 	-0.000961001 	-0.0640662
0.0167668 	4.076e-06 	-0.00090828 	-0.0638127
0.0168168 	2.97715e-06 	-0.000856121 	-0.0635581
0.0168669 	1.90554e-06 	-0.000804465 	-0.0633035
0.0169169 	8.70189e-07 	-0.000753703 	-0.0630486
0.016967 	1.32442e-07 	-0.000704341 	-0.0627928
0.017017 	1.10159e-06 	-0.000655377 	-0.0625374
0.0170671 	2.0394e-06 	-0.000607534 	-0.0622819
0.0171171 	2.93694e-06 	-0.000561207 	-0.062026
0.0171672 	3.8059e-06 	-0.000515308 	-0.0617707
0.0172172 	4.64053e-06 	-0.000470738 	-0.0615153
0.0172673 	5.42635e-06 	-0.000427447 	-0.0612601
0.0173173 	6.19806e-06 	-0.000384725 	-0.0610057
0.0173674 	6.93008e-06 	-0.000343549 	-0.0607511
0.0174174 	7.60609e-06 	-0.000303342 	-0.0604972
0.0174675 	8.27809e-06 	-0.000264042 	-0.0602439
0.0175175 	8.63047e-06 	-0.000226516 	-0.0599907
0.0175676 	7.97802e-06 	-0.000189713 	-0.0597387
0.0176176 	7.39742e-06 	-0.000153943 	-0.0594871
0.0176677 	6.83228e-06 	-0.000119871 	-0.0592357
0.0177177 	6.27382e-06 	-8.6383e-05 	-0.0589859
0.0177678 	5.78635e-06 	-5.38806e-05 	-0.0587367
0.0178178 	5.32464e-06 	-2.32477e-05 	-0.0584874
0.0178679 	4.86342e-06 	6.91333e-06 	-0.0582398
0.0179179 	4.45768e-06 	3.6333e-05 	-0.0579935
0.017968 	4.09802e-06 	6.37003e-05 	-0.0577465
0.018018 	3.7383e-06 	9.03461e-05 	-0.057501
0.0180681 	3.40697e-06 	0.000116464 	-0.057258
0.0181181 	3.1361e-06 	0.000140986 	-0.0570147
0.0181682 	2.88545e-06 	0.00016411 	-0.0567713
0.0182182 	2.64283e-06 	0.000186806 	-0.0565303
0.0182683 	2.44131e-06 	0.000208757 	-0.0562911
0.0183183 	2.28305e-06 	0.000229179 	-0.0560513
0.0183684 	2.14166e-06 	0.000248522 	-0.055812
0.0184184 	2.01594e-06 	0.000267105 	-0.0555756
0.0184685 	1.92924e-06 	0.000284832 	-0.0553407
0.0185185 	1.88009e-06 	0.000301571 	-0.0551049
0.0185686 	1.84788e-06 	0.000317428 	-0.0548699
0.0186186 	1.83146e-06 	0.000332015 	-0.0546378
0.0186687 	1.84871e-06 	0.000345631 	-0.0544075
0.0187187 	1.90339e-06 	0.000358842 	-0.0541766
0.0187688 	1.9781e-06 	0.000371379 	-0.0539459
0.0188188 	2.06312e-06 	0.000382378 	-0.0537179
0.0188689 	2.17476e-06 	0.000392148 	-0.0534925
0.0189189 	2.32785e-06 	0.000401764 	-0.0532669
0.018969 	2.50468e-06 	0.000411061 	-0.053041
0.019019 	2.68516e-06 	0.000419053 	-0.0528172
0.0190691 	2.88387e-06 	0.000425372 	-0.0525963
0.0191191 	3.12644e-06 	0.00043124 	-0.0523761
0.0191692 	3.39938e-06 	0.00043726 	-0.0521555
0.0192192 	3.66908e-06 	0.000442484 	-0.0519364
0.0192693 	3.94709e-06 	0.000445775 	-0.0517202
0.0193193 	4.27216e-06 	0.000448141 	-0.0515053
0.0193694 	4.63384e-06 	0.000450906 	-0.0512902
0.0194194 	4.98573e-06 	0.000453235 	-0.0510763
0.0194695 	5.33643e-06 	0.000453811 	-0.050865
0.0195195 	5.73826e-06 	0.00045326 	-0.0506553
0.0195696 	6.17813e-06 	0.000452971 	-0.0504459
0.0196196 	6.601e-06 	0.000452317 	-0.0502376
0.0196697 	7.0232e-06 	0.000450091 	-0.0500314
0.0197197 	7.15898e-06 	0.000446956 	-0.049827
0.0197698 	6.61655e-06 	0.000443956 	-0.0496231
0.0198198 	6.01828e-06 	0.000440387 	-0.0494207
0.0198699 	5.41539e-06 	0.000435453 	-0.0492205
0.0199199 	4.82445e-06 	0.000430062 	-0.0490216
0.01997 	4.19835e-06 	0.000424728 	-0.0488236
0.02002 	3.55136e-06 	0.000418369 	-0.0486274
0.0200701 	2.90645e-06 	0.000410981 	-0.0484331
0.0201201 	2.24168e-06 	0.000403676 	-0.0482398
0.0201702 	1.56221e-06 	0.000395738 	-0.0480482
0.0202202 	8.75943e-07 	0.000386641 	-0.0478586
0.0202703 	1.75675e-07 	0.000377682 	-0.04767
0.0203203 	5.37162e-07 	0.000367924 	-0.0474835
0.0203704 	1.25937e-06 	0.000357573 	-0.0472991
0.0204204 	1.99487e-06 	0.000347079 	-0.0471159
0.0204705 	2.7366e-06 	0.000335638 	-0.0469343
0.0205205 	3.48398e-06 	0.000323935 	-0.0467547
0.0205706 	4.23761e-06 	0.000311745 	-0.046577
0.0206206 	5.00091e-06 	0.000299024 	-0.0464012
0.0206707 	5.76951e-06 	0.000285893 	-0.046227
0.0207207 	6.37434e-06 	0.000272363 	-0.0460549
0.0207708 	5.4907e-06 	0.00025844 	-0.0458848
0.0208208 	4.60162e-06 	0.000244116 	-0.0457166
0.0208709 	3.70713e-06 	0.000229409 	-0.0455505
0.0209209 	2.80926e-06 	0.000214359 	-0.0453865
0.020971 	1.87922e-06 	0.000198789 	-0.0452257
0.021021 	9.45067e-07 	0.000183371 	-0.0450722
0.0210711 	1.05493e-07 	0.000169077 	-0.0449338
0.0211211 	6.75971e-07 	0.000156979 	-0.0448137
0.0211712 	1.41247e-06 	0.000143866 	-0.0447018
0.0212212 	2.18784e-06 	0.000131374 	-0.0445905
0.0212713 	2.97513e-06 	0.000121458 	-0.0444793
0.0213213 	3.739e-06 	0.000111421 	-0.0443695
0.0213714 	4.53866e-06 	0.000101048 	-0.0442604
0.0214214 	4.57836e-06 	9.13704e-05 	-0.0441508
0.0214715 	3.72711e-06 	8.22806e-05 	-0.0440407
0.0215215 	2.8503e-06 	7.34525e-05 	-0.0439316
0.0215716 	1.98995e-06 	6.54499e-05 	-0.0438237
0.0216216 	1.12359e-06 	5.77895e-05 	-0.043716
0.0216717 	2.44264e-07 	4.99601e-05 	-0.0436082
0.0217217 	6.46421e-07 	4.27804e-05 	-0.0435004
0.0217718 	1.54621e-06 	3.61562e-05 	-0.0433928
0.0218218 	2.4474e-06 	2.99128e-05 	-0.0432861
0.0218719 	3.36093e-06 	2.40114e-05 	-0.0431797
0.0219219 	4.28717e-06 	1.85412e-05 	-0.0430734
0.021972 	4.43726e-06 	1.33549e-05 	-0.0429677
0.022022 	3.46775e-06 	8.3848e-06 	-0.0428627
0.0220721 	2.53379e-06 	3.95146e-06 	-0.0427575
0.0221221 	1.57382e-06 	4.3766e-07 	-0.04265
0.0221722 	5.61177e-07 	-2.56157e-06 	-0.0425397
0.0222222 	4.63263e-07 	-5.65529e-06 	-0.0424292
0.0222723 	1.48555e-06 	-8.82545e-06 	-0.0423204
0.0223223 	2.50745e-06 	-1.20174e-05 	-0.0422128
0.0223724 	3.54704e-06 	-1.50499e-05 	-0.0421053
0.0224224 	4.61384e-06 	-1.77129e-05 	-0.0419975
0.0224725 	4.02333e-06 	-1.99927e-05 	-0.0418892
0.0225225 	2.93159e-06 	-2.19932e-05 	-0.0417808
0.0225726 	1.82838e-06 	-2.38112e-05 	-0.0416725
0.0226226 	7.20987e-07 	-2.55367e-05 	-0.0415648
0.0226727 	3.90147e-07 	-2.71591e-05 	-0.0414577
0.0227227 	1.5077e-06 	-2.86147e-05 	-0.0413511
0.0227728 	2.63312e-06 	-2.9943e-05 	-0.0412446
0.0228228 	3.76497e-06 	-3.10733e-05 	-0.0411384
0.0228729 	4.62371e-06 	-3.20424e-05 	-0.0410324
0.0229229 	3.45169e-06 	-3.28802e-05 	-0.0409268
0.022973 	2.27484e-06 	-3.35962e-05 	-0.0408216
0.023023 	1.09521e-06 	-3.42208e-05 	-0.0407168
0.0230731 	8.84373e-08 	-3.47941e-05 	-0.0406124
0.0231231 	1.27793e-06 	-3.51531e-05 	-0.0405085
0.0231732 	2.47076e-06 	-3.54395e-05 	-0.040405
0.0232232 	3.66637e-06 	-3.57207e-05 	-0.0403019
0.0232733 	4.4336e-06 	-3.59391e-05 	-0.0401993
0.0233233 	3.19674e-06 	-3.60981e-05 	-0.0400973
0.0233734 	1.95901e-06 	-3.6269e-05 	-0.0399957
0.0234234 	7.1942e-07 	-3.65004e-05 	-0.0398945
0.0234735 	5.23069e-07 	-3.67398e-05 	-0.0397939
0.0235235 	1.76873e-06 	-3.70509e-05 	-0.0396938
0.0235736 	3.01593e-06 	-3.749e-05 	-0.0395941
0.0236236 	4.26542e-06 	-3.80739e-05 	-0.0394949
0.0236737 	3.53755e-06 	-3.88113e-05 	-0.0393961
0.0237237 	2.25114e-06 	-3.97063e-05 	-0.0392976
0.0237738 	9.6175e-07 	-4.07649e-05 	-0.0391994
0.0238238 	3.31189e-07 	-4.2025e-05 	-0.0391015
0.0238739 	1.62889e-06 	-4.35263e-05 	-0.039004
0.0239239 	2.93103e-06 	-4.51464e-05 	-0.0389068
0.023974 	4.23781e-06 	-4.68809e-05 	-0.0388097
0.024024 	3.36505e-06 	-4.87837e-05 	-0.0387129
0.0240741 	2.02761e-06 	-5.08674e-05 	-0.0386163
0.0241241 	6.86581e-07 	-5.30475e-05 	-0.0385199
0.0241742 	6.61141e-07 	-5.52023e-05 	-0.0384236
0.0242242 	2.0143e-06 	-5.74108e-05 	-0.0383275
0.0242743 	3.37245e-06 	-5.97075e-05 	-0.0382316
0.0243243 	4.10372e-06 	-6.19411e-05 	-0.0381355
0.0243744 	2.72654e-06 	-6.39061e-05 	-0.0380392
0.0244244 	1.33331e-06 	-6.54276e-05 	-0.0379423
0.0244745 	8.1079e-08 	-6.64466e-05 	-0.0378447
0.0245245 	1.51292e-06 	-6.68048e-05 	-0.037746
0.0245746 	2.98244e-06 	-6.61278e-05 	-0.0376458
0.0246246 	4.50152e-06 	-6.4294e-05 	-0.0375438
0.0246747 	3.20173e-06 	-6.13148e-05 	-0.0374399
0.0247247 	1.69751e-06 	-5.72223e-05 	-0.0373341
0.0247748 	1.45115e-07 	-5.19781e-05 	-0.0372263
0.0248248 	1.43653e-06 	-4.53946e-05 	-0.0371163
0.0248749 	3.06032e-06 	-3.76955e-05 	-0.0370046
0.0249249 	4.72497e-06 	-2.91029e-05 	-0.0368913
0.024975 	3.35337e-06 	-1.97901e-05 	-0.0367764
0.025025 	1.69207e-06 	-9.84435e-06 	-0.03666
0.0250751 	6.97232e-09 	7.90489e-07 	-0.0365423
0.0251251 	1.72423e-06 	1.26381e-05 	-0.0364234
0.0251752 	3.46759e-06 	2.5349e-05 	-0.0363037
0.0252252 	4.78597e-06 	3.83704e-05 	-0.0361829
0.0252753 	3.03479e-06 	5.14254e-05 	-0.0360608
0.0253253 	1.23898e-06 	6.46045e-05 	-0.0359376
0.0253754 	5.70676e-07 	7.87478e-05 	-0.0358142
0.0254254 	2.39152e-06 	9.37492e-05 	-0.0356904
0.0254755 	4.25387e-06 	0.000108495 	-0.0355655
0.0255255 	4.1116e-06 	0.00012312 	-0.0354397
0.0255756 	2.22844e-06 	0.000138114 	-0.0353136
0.0256256 	3.48627e-07 	0.000154102 	-0.0351879
0.0256757 	1.5475e-06 	0.000170208 	-0.0350613
0.0257257 	3.47514e-06 	0.000185531 	-0.0349337
0.0257758 	4.89262e-06 	0.00020123 	-0.034806
0.0258258 	2.94311e-06 	0.000217626 	-0.0346786
0.0258759 	1.00577e-06 	0.000234484 	-0.0345515
0.0259259 	9.5535e-07 	0.000250632 	-0.0344234
0.025976 	2.93545e-06 	0.000266358 	-0.0342946
0.026026 	4.89585e-06 	0.000282701 	-0.0341662
0.0260761 	3.37468e-06 	0.000299614 	-0.0340385
0.0261261 	1.38679e-06 	0.000316662 	-0.0339109
0.0261762 	6.25655e-07 	0.000332909 	-0.0337825
0.0262262 	2.65405e-06 	0.000348597 	-0.0336535
0.0262763 	4.66571e-06 	0.000364774 	-0.033525
0.0263263 	3.5269e-06 	0.000381613 	-0.0333972
0.0263764 	1.48948e-06 	0.000398866 	-0.03327
0.0264264 	5.60481e-07 	0.000415544 	-0.0331424
0.0264765 	2.62747e-06 	0.000431268 	-0.0330142
0.0265265 	4.69727e-06 	0.000446807 	-0.032886
0.0265766 	3.41947e-06 	0.000462588 	-0.0327582
0.0266266 	1.32693e-06 	0.000478901 	-0.0326311
0.0266767 	7.54675e-07 	0.000495843 	-0.0325048
0.0267267 	2.84321e-06 	0.000512343 	-0.0323785
0.0267768 	4.94933e-06 	0.00052819 	-0.0322519
0.0268268 	3.04657e-06 	0.000543514 	-0.0321252
0.0268769 	9.19448e-07 	0.000558526 	-0.0319984
0.0269269 	1.20735e-06 	0.00057348 	-0.0318721
0.026977 	3.32322e-06 	0.000588899 	-0.0317465
0.027027 	4.53456e-06 	0.000604753 	-0.0316217
0.0270771 	2.3962e-06 	0.000620767 	-0.0314973
0.0271271 	2.58538e-07 	0.000636533 	-0.0313732
0.0271772 	1.88732e-06 	0.000651479 	-0.0312488
0.0272272 	4.03811e-06 	0.000665975 	-0.0311245
0.0272773 	3.71602e-06 	0.00068017 	-0.0310004
0.0273273 	1.54049e-06 	0.000694162 	-0.0308765
0.0273774 	6.31058e-07 	0.00070801 	-0.0307531
0.0274274 	2.79638e-06 	0.000722007 	-0.0306303
0.0274775 	4.81302e-06 	0.000736375 	-0.0305082
0.0275275 	2.6238e-06 	0.000750991 	-0.0303869
0.0275776 	4.50004e-07 	0.000765636 	-0.0302661
0.0276276 	1.72777e-06 	0.000779564 	-0.0301454
0.0276777 	3.9092e-06 	0.000792894 	-0.0300247
0.0277277 	3.56448e-06 	0.000805849 	-0.0299042
0.0277778 	1.35999e-06 	0.000818536 	-0.029784
0.0278278 	8.40252e-07 	0.000830984 	-0.0296641
0.0278779 	3.03656e-06 	0.000843219 	-0.0295447
0.0279279 	4.32121e-06 	0.000855303 	-0.0294257
0.027978 	2.09806e-06 	0.000867279 	-0.0293072
0.028028 	1.10793e-07 	0.000879206 	-0.0291892
0.0280781 	2.30871e-06 	0.000891461 	-0.0290724
0.0281281 	4.48629e-06 	0.000903668 	-0.0289562
0.0281782 	2.66772e-06 	0.000915556 	-0.0288404
0.0282282 	4.56617e-07 	0.00092691 	-0.0287247
0.0282783 	1.75811e-06 	0.000937667 	-0.028609
0.0283283 	3.96721e-06 	0.000948135 	-0.0284936
0.0283784 	3.10306e-06 	0.000958374 	-0.0283786
0.0284284 	8.72049e-07 	0.000968409 	-0.028264
0.0284785 	1.35255e-06 	0.000978198 	-0.0281498
0.0285285 	3.56897e-06 	0.000987763 	-0.0280361
0.0285786 	3.37611e-06 	0.000997138 	-0.0279229
0.0286286 	1.13482e-06 	0.00100634 	-0.0278102
0.0286787 	1.08417e-06 	0.00101538 	-0.0276987
0.0287287 	3.28274e-06 	0.0010241 	-0.0275881
0.0287788 	3.49232e-06 	0.00103249 	-0.0274777
0.0288288 	1.26734e-06 	0.00104058 	-0.0273673
0.0288789 	9.63729e-07 	0.00104837 	-0.0272569
0.0289289 	3.19041e-06 	0.00105589 	-0.0271469
0.028979 	3.51025e-06 	0.0010632 	-0.0270371
0.029029 	1.26429e-06 	0.0010703 	-0.0269278
0.0290791 	9.7248e-07 	0.00107715 	-0.0268189
0.0291291 	3.19529e-06 	0.00108368 	-0.0267108
0.0291792 	3.35643e-06 	0.00108966 	-0.0266035
0.0292292 	1.12215e-06 	0.00109505 	-0.026497
0.0292793 	1.0953e-06 	0.00109986 	-0.0263913
0.0293293 	3.31769e-06 	0.00110477 	-0.0262855
0.0293794 	3.12397e-06 	0.00110965 	-0.0261797
0.0294294 	8.8064e-07 	0.00111445 	-0.026074
0.0294795 	1.35819e-06 	0.00111903 	-0.0259686
0.0295295 	3.58367e-06 	0.0011233 	-0.0258637
0.0295796 	2.74359e-06 	0.00112702 	-0.0257596
0.0296296 	5.09004e-07 	0.00113001 	-0.0256563
0.0296797 	1.70666e-06 	0.00113188 	-0.0255541
0.0297297 	3.91982e-06 	0.00113377 	-0.025452
0.0297798 	2.27531e-06 	0.00113582 	-0.02535
0.0298298 	3.93837e-08 	0.0011381 	-0.0252478
0.0298799 	2.19585e-06 	0.00114021 	-0.0251459
0.0299299 	3.93588e-06 	0.00114175 	-0.0250447
0.02998 	1.68285e-06 	0.00114257 	-0.0249442
0.03003 	5.34593e-07 	0.00114234 	-0.0248447
0.0300801 	2.74457e-06 	0.00114165 	-0.0247458
0.0301301 	3.25041e-06 	0.00114117 	-0.0246468
0.0301802 	1.01697e-06 	0.00114087 	-0.0245477
0.0302302 	1.2133e-06 	0.00114054 	-0.0244489
0.0302803 	3.41976e-06 	0.0011393 	-0.024351
0.0303303 	2.46017e-06 	0.00113735 	-0.0242537
0.0303804 	2.45205e-07 	0.00113471 	-0.0241571
0.0304304 	1.96789e-06 	0.00113202 	-0.0240607
0.0304805 	3.84611e-06 	0.0011295 	-0.0239644
0.0305305 	1.60847e-06 	0.00112686 	-0.0238683
0.0305806 	6.1069e-07 	0.00112369 	-0.0237727
0.0306306 	2.80928e-06 	0.00111945 	-0.0236781
0.0306807 	2.87606e-06 	0.00111493 	-0.0235839
0.0307307 	6.63752e-07 	0.00111028 	-0.0234898
0.0307808 	1.54949e-06 	0.00110577 	-0.0233959
0.0308308 	3.74418e-06 	0.00110076 	-0.0233025
0.0308809 	1.8453e-06 	0.00109526 	-0.0232095
0.0309309 	3.57784e-07 	0.00108915 	-0.0231173
0.030981 	2.55939e-06 	0.00108297 	-0.0230251
0.031031 	2.96213e-06 	0.00107674 	-0.0229332
0.0310811 	7.4452e-07 	0.00107032 	-0.0228416
0.0311311 	1.45037e-06 	0.00106297 	-0.022751
0.0311812 	3.63224e-06 	0.00105525 	-0.0226607
0.0312312 	1.77503e-06 	0.00104747 	-0.0225706
0.0312813 	4.26539e-07 	0.00103982 	-0.0224806
0.0313313 	2.61482e-06 	0.00103148 	-0.0223912
0.0313814 	2.71986e-06 	0.00102283 	-0.0223022
0.0314314 	5.25438e-07 	0.00101392 	-0.0222136
0.0314815 	1.66496e-06 	0.00100493 	-0.0221252
0.0315315 	3.59991e-06 	0.000995535 	-0.0220373
0.0315816 	1.40096e-06 	0.00098587 	-0.0219498
0.0316316 	7.83531e-07 	0.000975974 	-0.0218627
0.0316817 	2.96155e-06 	0.000965931 	-0.0217759
0.0317317 	2.20645e-06 	0.000955594 	-0.0216894
0.0317818 	2.57281e-08 	0.0009449 	-0.0216034
0.0318318 	2.14864e-06 	0.000933965 	-0.0215178
0.0318819 	2.95202e-06 	0.000923056 	-0.0214324
0.0319319 	7.63684e-07 	0.000912068 	-0.0213472