# Probe 0 (0 0.005 0.005)
# Probe 1 (0 0.015 0.015)
# Probe 2 (0 0.034 0.0333)
# Probe 3 (0 0.0005 0.0005)
# Probe 4 (0 0.03 0.03)
#       Probe             0             1             2             3             4
#        Time
            0        100000        100000        100000        100000        100000
        1e-06        100000        100000        100000       9349.48        100000
        2e-06       99913.8        100000        100000       9304.81        100000
        3e-06       64950.1        100000        100000       9374.42        100000
        4e-06       59632.9        100000        100000       9405.47        100000
        5e-06       59141.4        100000        100000        9431.5        100000
        6e-06       59195.4        100000        100000       9454.96        100000
        7e-06       59190.5        100000        100000       9475.14        100000
        8e-06       59192.7        100000        100000       9492.79        100000
        9e-06       59210.7       99999.9        100000       9510.27        100000
        1e-05       59206.1       99988.6        100000          9537        100000
      1.1e-05       59212.1       99668.5        100000       9580.59        100000
      1.2e-05       59223.1       96554.6        100000       9654.02        100000
      1.3e-05       59233.9       87538.6        100000        9863.1        100000
      1.4e-05       59247.5       84318.7        100000        2985.8        100000
      1.5e-05       59267.4       87531.2        100000       9533.26        100000
      1.6e-05       59655.2       86053.8        100000       9471.72        100000
      1.7e-05       58493.9       86523.2        100000       9516.74        100000
      1.8e-05       59286.9       86441.2        100000        9608.8        100000
      1.9e-05         59255       86445.2        100000       10794.9        100000
        2e-05         59267       86447.9        100000       15403.7        100000
      2.1e-05       59298.7       86453.4        100000       4628.87       99999.7
      2.2e-05       59390.5       86452.6        100000       17938.6       99997.1
      2.3e-05       59334.2       86464.5       99999.9       6943.78       99979.4
      2.4e-05         59517       86461.7       99999.4       4428.45         99889
      2.5e-05       59177.4       86511.9       99995.6         10516       99547.4
      2.6e-05       59264.8       86759.4       99975.2        9697.3       98593.1
      2.7e-05         59343       86512.9       99889.8       5272.98       96670.9
      2.8e-05       59356.1       86428.9       99609.6       16345.7       94080.4
      2.9e-05       59355.9       86462.9       98891.1       12164.7       92091.7
        3e-05       61109.6       86473.3       97475.7       10432.4       91989.5
      3.1e-05       59933.6       86496.9       95438.4       11122.6       93281.6
      3.2e-05       59640.3       86501.3         93479        2985.8       94075.6
      3.3e-05       60253.8       86534.5       92619.7       11032.5       93492.5
      3.4e-05       59448.9       86854.2       93222.9       11519.5       92787.8
      3.5e-05       59866.2         86619       94376.7       9869.26       93067.9
      3.6e-05       59937.5       86398.9       94701.9       9778.33       93565.7
      3.7e-05         59929       86500.9       93989.6       9798.82         93396
      3.8e-05       59945.2       86535.6       93312.8       9819.69       93060.5
      3.9e-05       59993.5       86763.6       93491.3       9813.81       93168.1
        4e-05       60044.5       86701.3         94000       9812.91       93342.5
      4.1e-05       60065.2       86507.8       94005.1       9810.79       93220.9
      4.2e-05       60102.2       86642.2       93590.5       9834.16       93053.1
      4.3e-05         60142       86683.4       93411.6       9856.12       93022.7
      4.4e-05       60172.4       86671.7       93578.7       9865.77       92994.6
      4.5e-05       60224.1         86650       93651.1       9881.29       92930.6
      4.6e-05         60269       86709.8       93453.4       9899.28       92869.9
      4.7e-05       60311.9       86685.3       93247.6       9918.41       92832.3
      4.8e-05       60355.3       86702.8       93212.6       9943.11       92809.8
      4.9e-05       60398.5         86730       93222.5       9979.45       92772.6
        5e-05       60440.9       86739.7       93161.6       10036.5       92667.2
      5.1e-05       60488.2       86743.6       93070.6       10077.5         92516
      5.2e-05       60539.4       86739.4       93000.6       10074.6       92415.7
      5.3e-05       60592.6       86708.6       92920.2       10061.7       92392.6
      5.4e-05       60619.8       86643.1       92792.1       10042.3       92359.8
      5.5e-05       60652.8       86551.2       92657.9       10058.1       92258.8
      5.6e-05       60710.4       86445.6       92573.2       10055.6       92118.3
      5.7e-05       60771.2       86357.8       92529.6       10042.9         92010
      5.8e-05       60817.3       86289.7         92463       10047.5       91933.8
      5.9e-05       60860.4       86213.8       92342.6         10033       91839.5
        6e-05       60896.2       86106.2         92208       10034.7       91726.5
      6.1e-05       60918.2       85975.1       92104.4         10047         91616
      6.2e-05       60887.4       85845.3       92024.2       10032.2       91510.1
      6.3e-05         60751       85727.6       91932.1       10031.1       91401.7
      6.4e-05         60496       85599.3       91819.2       9976.65       91291.1
      6.5e-05         60175       85460.3       91704.1       9905.13       91179.4
      6.6e-05       59895.6       85307.1       91598.4       9842.88       91065.5
      6.7e-05       59732.3       85146.2       91495.7       9791.97       90950.1
      6.8e-05       59666.1       84983.6       91387.3       9773.39       90833.2
      6.9e-05       59624.6       84808.7       91273.3          9811       90714.8
        7e-05       59575.7       84626.2       91158.4       9839.57         90596
      7.1e-05       59529.7       84438.7       91044.4       9810.22       90475.9
      7.2e-05       59471.7       84244.3       90929.9       9740.86       90353.5
      7.3e-05       59384.7         84043       90813.5       9706.19       90228.9
      7.4e-05       59266.7       83835.1       90695.4       9721.33       90102.9
      7.5e-05       59184.5       83627.3       90575.8       9760.92       89975.6
      7.6e-05       59130.7       83428.5       90454.4       9750.13       89847.1
      7.7e-05         59096       83246.8       90331.4       9720.49       89716.5
      7.8e-05       59012.7       83089.4       90206.9       9707.44       89583.1
      7.9e-05       58894.6       82961.3       90081.2       9726.49       89447.2
        8e-05         58798       82852.5       89953.7       9750.89       89311.3
      8.1e-05       58729.1       82741.9       89823.9       9735.81         89175
      8.2e-05       58663.9       82608.9       89691.8       9721.05       89035.5
      8.3e-05         58592       82462.7       89558.4        9719.3       88892.2
      8.4e-05       58531.6       82329.4       89424.3       9726.35       88747.5
      8.5e-05       58503.2       82224.4       89288.7        9748.2       88602.7
      8.6e-05       58480.9       82129.5       89150.1       9759.62         88457
      8.7e-05       58468.4       82026.7       89008.7       9773.21       88308.2
      8.8e-05       58449.5         81912       88866.2       9777.59       88155.5
      8.9e-05         58442       81804.6       88723.3       9785.74         88001
        9e-05       58440.3       81711.6       88578.7       9796.29       87849.1
      9.1e-05       58440.4       81627.2       88430.7       9815.19       87704.1
      9.2e-05       58439.2       81539.8       88280.1        9838.5       87569.2
      9.3e-05       58435.5       81451.9       88130.2       9852.32       87446.3
      9.4e-05       58430.6       81373.9       87985.4       9863.24       87333.8
      9.5e-05       58421.5       81303.2       87849.2       9870.31       87225.3
      9.6e-05       58413.7       81234.3       87723.1       9884.38       87111.6
      9.7e-05         58404       81166.4       87606.2       9898.15         86989
      9.8e-05       58396.9       81095.9       87494.4       9913.24       86863.5
      9.9e-05       58390.2       81027.8       87381.1       9933.26       86745.6
       0.0001       58383.3       80959.4       87261.1       9945.75       86637.8
     0.000101         58376         80892       87136.2       9960.64       86532.3
     0.000102       58366.4       80823.4         87014       9975.82       86421.7
     0.000103       58358.3       80754.1       86900.5       9985.85       86307.6
     0.000104         58349       80682.1       86793.7       9999.58       86196.8
     0.000105       58337.1       80608.3       86686.1       10012.9       86092.6
     0.000106       58323.7       80533.8       86573.9       10029.2       85991.3
     0.000107       58310.9       80458.8       86460.6       10046.4       85889.2
     0.000108       58299.6       80384.1         86352       10060.9       85787.5
     0.000109       58287.8       80307.7         86249       21230.9       85689.2
      0.00011       58275.4       80230.2       86147.7        2985.8       85594.2
     0.000111       58273.8         80151       86045.6        2985.8       85499.9
     0.000112        108180       80071.1       85944.3       52129.4         85405
     0.000113       53872.5       79990.5       85846.3       15526.5       85309.8
     0.000114       61681.2       79907.7       85751.1        2985.8       85214.9
     0.000115       59394.7       79823.3         85656         26664       85120.3
     0.000116       59428.8       79737.6       85559.9       25214.8       85025.8
     0.000117       59674.1       79651.5       85463.5       17552.1       84931.1
     0.000118       59802.9       79565.5       85367.8       18108.1       84835.8
     0.000119       59422.7       79479.3       85272.9       18067.3       84739.7
      0.00012       59564.8       79581.4         85178       18051.8       84643.2
     0.000121       59525.4       82555.2       85082.5       18041.3       84546.8
     0.000122       59480.7       85648.7       84986.3       18007.1       84450.8
     0.000123       59445.1       77930.1       84889.9       18035.7       84355.1
     0.000124       59404.4       79107.8       84793.4         18019       84259.3
     0.000125       59376.5       80496.4       84697.3         18045       84163.2
     0.000126       59338.5       79019.8       84601.5       18047.1       84067.2
     0.000127       59308.6       79330.8       84505.7       18056.1       83971.3
     0.000128       59270.3         79230       84409.9         18084       83875.6
     0.000129       59243.6       79101.1       84313.9       18104.2       83779.7
      0.00013       59230.9       79006.4         84218         18123       83683.8
     0.000131       59218.1       78917.2       84122.2       18156.9       83588.2
     0.000132       59202.7       78824.4       84026.5       18193.1       83497.5
     0.000133       59174.2       78741.7       83930.8       18205.8         83446
     0.000134       59163.7       78656.2       83835.9       36508.3       83558.4
     0.000135       59130.2       78567.7         83748        2985.8       84004.9
     0.000136       59139.8       78484.7       83696.7        2985.8       84608.7
     0.000137        113519       78400.6       83761.2        2985.8       84717.1
     0.000138       57019.4       78316.3       84035.8       36681.3       83874.8
     0.000139       63255.7       78239.8       84470.6       25339.3       82680.2
      0.00014       61585.2       78164.7       84715.3       23122.6       82364.1
     0.000141       60630.3       78086.8       84327.3       20210.7       82931.9
     0.000142       61006.7         78013       83434.2       19797.3         83188
     0.000143       61106.2       77939.4       82754.5       20096.3       82743.9
     0.000144       60858.3       77868.6       82807.7       19942.8       82380.4
     0.000145       60798.1       78040.3       83289.5       19934.1       82479.9
     0.000146       60763.4       81479.3       83423.6       20236.1       82545.8
     0.000147         60739       84323.1       83056.6       20050.1         82419
     0.000148       60727.5       76317.2       82746.3       20122.4       82328.8
     0.000149       60698.8       78060.9       82790.3       20258.1       82303.2
      0.00015       60691.3       78748.6       82903.8       20171.4       82248.4
     0.000151       60682.3       77838.8       82825.4       20264.5       82175.1
     0.000152       60676.3       77927.6       82661.5       20278.1       82114.7
     0.000153       60675.4       77885.8       82573.3       19721.1         82072
     0.000154       60663.4       77786.2       82534.6       15352.3       82028.7
     0.000155       60667.6       77713.2       82476.9       18234.5       81973.4
     0.000156        116932       77642.4       82391.6       31253.2       81907.4
     0.000157       60344.4         77572         82305       26250.3         81844
     0.000158       63579.4       77502.6       82229.5       30838.9       81827.9
     0.000159       63561.8       77448.4       82157.4       26780.7       81995.4
      0.00016       63021.3       77410.2       82088.8       27577.3       82526.7
     0.000161       62573.2       77406.3       82059.3       27455.4       83204.7
     0.000162       62775.9       77429.1       82161.1       27173.8       83326.2
     0.000163       62708.7       77457.8         82496       27349.4       82437.2
     0.000164       62623.9       77722.5       82998.9         26929       81218.7
     0.000165       62571.1       81387.9       83277.5       27134.4       80941.2
     0.000166       62507.8       84370.8       82870.8       27060.8       81542.5
     0.000167       62519.8       76308.7       81949.9       27194.4       81803.7
     0.000168       62512.3       78081.3       81276.9       26893.7       81386.7
     0.000169       62548.8       78732.1       81373.1       61813.3       81065.9
      0.00017       62686.3       78057.3       81887.6         27192       81169.9
     0.000171       71463.8       78094.3       82033.2       53586.5       81237.7
     0.000172       51399.6       78068.7       81683.8       34584.6       81157.6
     0.000173       68783.1       78025.1         81405       36030.6       81109.4
     0.000174       67146.2       77968.9       81467.9       32064.9       81094.2
     0.000175       66399.8       77919.6       81588.4       32146.6       81053.6
     0.000176       66162.2       77863.3       81533.7       31689.9       81007.9
     0.000177       66115.7       77816.1       81406.2         31750       81024.1
     0.000178       65990.7       77766.6       81341.7       31572.3       81250.2
     0.000179       65906.1         77738         81323       31638.2       81858.9
      0.00018       65726.7       79056.2         81335       31948.2       82613.7
     0.000181       65625.6       84615.8         81464       31793.4       82782.2
     0.000182       65570.8       81145.6       81833.5        305679       81892.8
     0.000183       65435.7       75810.1       82385.9       36101.2       80652.8
     0.000184         66766       79563.8       82705.2       70171.1       80374.8
     0.000185       81213.2         78073       82309.2       38769.9       81007.3
     0.000186         71135         78202       81373.9       40153.8       81303.7
     0.000187       68822.8       78177.2       80687.3       38892.2       80907.6
     0.000188       67683.9       78123.4       80798.2       38639.2       80594.7
     0.000189       67516.1       78057.2       81342.4       38478.2       80702.2
      0.00019       67304.3       78000.1       81516.9       38339.2       80784.8
     0.000191       67264.1       77951.2         81182       38338.5       80736.4
     0.000192       67207.9       77919.6       80910.8       38124.8         80733
     0.000193       67170.5         78720       80982.7       43126.8       80860.8
     0.000194         67140       84122.9         81120       30933.5       81274.6
     0.000195       67321.7       83332.5       81112.6       30672.1       82061.9
     0.000196        128223       75827.5       81119.3         41500       82699.1
     0.000197       71228.6       79599.5       81387.4       44239.2       82411.4
     0.000198       71997.6       78542.2       81947.6       45137.2       81178.7
     0.000199       71397.2       78488.9       82525.3       45048.8       80238.1
       0.0002       71228.9       78445.3       82564.5       44640.9         80532
     0.000201       71292.8       78386.5       81823.5       44558.3       81156.4
     0.000202       71141.9       78326.3       80875.9         44164         81062
     0.000203       71094.2         78292       80528.8       50269.5       80577.4
     0.000204       70875.9         78503         80948       26373.4       80476.7
     0.000205       70741.9       82224.1       81404.5       64392.1       80634.7
     0.000206        133922       86558.5       81268.4       54420.4         80737
     0.000207       76165.8       78277.3         80864       52767.2       81055.2
     0.000208       75288.7       78893.3         80762       52221.6       81837.7
     0.000209         73690       80217.1       80998.5       52060.8       82600.7
      0.00021       73494.6       79359.4       81332.6       51314.6       82489.9
     0.000211       73184.7         79427         81795       51135.4       81306.9
     0.000212       72932.6       79361.7       82350.6        196479       80190.8
     0.000213       72887.2         79294       82549.6       47961.2       80324.8
     0.000214       73121.2       79452.8       81952.7       56609.6       81069.5
     0.000215        125820       83300.3       80949.9       56590.1       81185.7
     0.000216       81697.4         87520       80430.2       58494.2       80741.7
     0.000217       77747.9       78831.9       80781.1       59250.5       80639.5
     0.000218       77854.5       79520.9       81361.3       59444.6       81083.3
     0.000219       77229.8       80719.8       81402.5       59077.3       81816.7
      0.00022       77392.6       79866.8       81083.6        348518       82732.3
     0.000221       77050.8       79977.5       81113.2       78693.1       83117.3
     0.000222       78939.2       80022.1       81743.4       65669.5       82326.8
     0.000223       95056.5       80599.8       82574.2       67837.3       80962.9
     0.000224         80693         85868       83030.8         67433       80501.6
     0.000225       80660.9       87903.6         82680       67129.4       81195.4
     0.000226       80289.1       78717.2       81731.3       66756.2       81703.1
     0.000227       80213.4       81724.5       80950.5        347757       81428.3
     0.000228       79861.4       81652.9         81001        117993       81293.1
     0.000229       82294.8       81303.4       81603.4       73181.1       82073.6
      0.00023       93256.9       81264.3       81938.6       75638.1       83191.3
     0.000231       83571.6       82129.6       81826.3       75474.7       83593.3
     0.000232       84633.4       88271.4       81970.2       74987.3       82694.6
     0.000233       84529.4       87742.2         82727        174840         81289
     0.000234         84311       79197.7       83437.4       85575.9       80858.6
     0.000235       84142.4       83382.2       83211.5       81997.6       81566.6
     0.000236        148941       82344.9       82110.9         86188         82150
     0.000237         93009       82300.8       81196.4       84942.6       82203.4
     0.000238       88287.5       83305.9       81315.2       83969.6       82672.6
     0.000239       88359.1       89780.2       82093.6        114550       83791.9
      0.00024       87698.5       88951.9       82671.3        103033       84234.9
     0.000241        100270       80383.4       82913.9         95418       83147.8
     0.000242       75414.9       84778.3       83354.9       94688.7       81706.8
     0.000243       93824.7         83551       83883.5         93506       81616.1
     0.000244       92382.6       84018.5       83707.2        148329       82627.4
     0.000245         92118       89440.9       82671.8        118244       83376.9
     0.000246        103821         92724       81831.9        103854       83778.2
     0.000247       82248.3       82700.6       82129.4        105404       84473.9
     0.000248         99235       85102.9       83200.5        135046       84739.8
     0.000249       96942.9       85443.8       84072.1        124295       83658.4
      0.00025       96609.2       86494.7       84410.4        124804       82261.7
     0.000251        173992       94019.5       84456.6        115948       82371.1
     0.000252        105944       90367.1       84048.2        133460       83814.5
     0.000253        102474       83182.5       83165.6        138524       85017.1
     0.000254        101255       88020.9       82629.6        135205       85452.9
     0.000255        180184         87810       83198.1        128456       85310.8
     0.000256        110187         95749       84525.5        446871       84329.2
     0.000257        108395       92519.2       85513.3        154032       83254.7
     0.000258        110660       84780.7       85463.2        145777       83564.9
     0.000259        129991       90268.1       84669.2        279599       85295.3
      0.00026        114906       92993.3         83792        167888       86728.2
     0.000261        113454       98885.6       83641.1        157534       86630.6
     0.000262        192139       88209.5       84597.4        453535       85375.8
     0.000263        125302       89455.1       86032.5        171144       84237.4
     0.000264        120557         95898       86718.2        172997       84589.6
     0.000265        182553        100637       86038.5       99645.5       86420.9
     0.000266        131181       90986.2       84826.5        199442       87942.1
     0.000267        161364       92004.6       84457.7        562560       87530.5
     0.000268        111204        101817       85559.7        215408       85854.3
     0.000269        139769        100412       87169.8        608837       85233.8
      0.00027        172572       91015.7         87742        244711       86828.1
     0.000271        149754        101948         86798        347729       88882.4
     0.000272        196693        105554       85651.3        280893       89001.8
     0.000273        177433       94700.2       85961.6        329373       87355.7
     0.000274        155236        104132       87652.4        369766       86661.3
     0.000275        270827        108788       88932.2        816757       88409.3
     0.000276        203366       97705.1       88421.4        894751       90375.8
     0.000277        187755        111925       87175.5        919775       89959.7
     0.000278        271938        108028       87248.7        613935       88360.3
     0.000279        335214        107215       88941.7   1.49273e+06       88831.7
      0.00028        381048        118029       90159.2   5.60417e+06       91086.5
     0.000281        499516        109697       89557.8        2985.8       91831.3
     0.000282        925563        122957       88668.8        2985.8         90559
     0.000283   3.87888e+06        117560       89369.3        2985.8         90525
     0.000284        2985.8        128264       90939.3        2985.8       92480.5
     0.000285        2985.8        128471         91406        2985.8         93390
     0.000286        2985.8        138076       90847.1        2985.8       92704.4
     0.000287        2985.8        144860         91037         29148       93078.5
     0.000288        2985.8        157582       92249.9       21348.2         94664
     0.000289        2985.8        175413       93038.4        2985.8       95333.4
      0.00029        2985.8        209931       93073.2       70257.3       95420.1
     0.000291        2985.8        312825       93442.8        2985.8       96413.3
     0.000292        2985.8        638362       94407.3        2985.8       97691.4
     0.000293        2985.8        816217         95208        2985.8         98537
     0.000294       41419.1        180722       95768.3        2985.8         99535
     0.000295       83113.4        2985.8       96584.4        191647        100917
     0.000296       76337.7        2985.8       97643.3        148878        102365
     0.000297       77275.1        2985.8       98674.9        254675        104060
     0.000298       90020.5        2985.8         99798        134229        106100
     0.000299       88400.7        2985.8        101144        171882        108546
       0.0003        106442        7629.6        102696        113933        111656
     0.000301        111767       45950.1        104514       75857.3        115772
     0.000302       99344.4         62477        106713       66811.4        121710
     0.000303       88957.7       69014.3        109451       85321.3        131764
     0.000304       81031.7       81132.7        113064       68548.9        151800
     0.000305       84329.1       89957.4        118316       90022.3        192542
     0.000306         87736         85373        127053       73636.8        260605
     0.000307       90424.9       87147.1        143636         71558        330224
     0.000308       79623.8       91296.8        175175         74902        337589
     0.000309       82865.2       92466.7        226147       81993.6        235613
      0.00031       83709.8       98060.7        282369       86539.2       82291.8
     0.000311       80546.9       95047.9        306175       59506.2        2985.8
     0.000312       83907.4       90973.7        257147       73958.9        2985.8
     0.000313       85484.4       89981.5        142965       61379.7        2985.8
     0.000314       81870.2       87826.6       32524.1       81527.4       8620.28
     0.000315       79181.7       89004.5        2985.8       76008.4       46950.7
     0.000316       81003.8       89017.4        2985.8       75048.7       81159.9
     0.000317       88178.4       89119.2       25204.3       74700.9       94257.2
     0.000318       83154.2       89994.6       48919.7         74810       92334.3
     0.000319       84694.7         89130       75089.1         75665       92979.4
      0.00032       83062.6       89415.2       97965.2       78452.5        101072
     0.000321       85117.7       89446.9        105407       77700.1        104848
     0.000322       85016.3       90165.7       97722.2         77702       99080.6
     0.000323       86053.2       91511.7       91573.9       76498.2       95306.2
     0.000324       85503.3       89803.7       97081.3       77632.5        101535
     0.000325       86459.4         90050        105412       78717.9        108718
     0.000326       86273.3       91355.7        105293         78991        106392
     0.000327       86824.1       93394.9       99901.3       78587.5       99725.6
     0.000328       87499.5       92252.6       99649.6       79428.2       98538.6
     0.000329       88411.7       92221.3        104361       80504.9        101908
      0.00033       88813.2       93763.6        105549       81511.8        102866
     0.000331       89284.2       94872.3        100937         81549        101074
     0.000332       90211.1       98537.9         97459       82438.9        100804
     0.000333       91141.5        103164       99331.1       83733.3        102139
     0.000334       91541.7        109492        102284         84392        102165
     0.000335       91862.9        114532        102041       85063.6        101067
     0.000336         92318        115034        100181         85195        101077
     0.000337         92704        110251        100030       86157.4        102124
     0.000338         92828        104643        101217       87986.3        102368
     0.000339       93785.3        104775        101548       88402.7        101653
      0.00034       98016.3        111364        100972       89630.8        101401
     0.000341        104079        116366        100926       91454.1        102118
     0.000342        115321        113575        101510       92516.4        102916
     0.000343        131604        108220        101748        101280        103010
     0.000344        148403        108780        101590        118962        102639
     0.000345        156679        114099        101796        146899        102514
     0.000346        149911        115267        102410        180288        102918
     0.000347        131889        111365        102718        202431        103391
     0.000348        118911        109085        102480        187624        103489
     0.000349        124672        111575        102286        126195        103417
      0.00035        138080        113807        102615       74834.1        103563
     0.000351        131392        112326        103138       14552.2        103837
     0.000352        102037        110419        103329         66080        103983
     0.000353       79846.8        111157        103200        120100        104069