0 	2985.8
5.00501e-05 	2985.8
0.0001001 	2985.8
0.00015015 	2985.8
0.0002002 	2985.8
0.00025025 	2985.8
0.0003003 	2985.8
0.00035035 	2985.8
0.0004004 	2985.8
0.00045045 	2985.8
0.000500501 	2985.8
0.000550551 	2985.8
0.000600601 	2985.8
0.000650651 	2985.8
0.000700701 	2985.8
0.000750751 	2985.8
0.000800801 	2985.8
0.000850851 	2985.8
0.000900901 	2985.8
0.000950951 	2985.8
0.001001 	2985.8
0.00105105 	2985.8
0.0011011 	2985.8
0.00115115 	2985.8
0.0012012 	3442.39
0.00125125 	4027.92
0.0013013 	4665.78
0.00135135 	4890.34
0.0014014 	4817.05
0.00145145 	4750.68
0.0015015 	4716.59
0.00155155 	4596.14
0.0016016 	4335.04
0.00165165 	3980.59
0.0017017 	3623.13
0.00175175 	3497.94
0.0018018 	3480.33
0.00185185 	3473.03
0.0019019 	3458.93
0.00195195 	3441.21
0.002002 	3423.39
0.00205205 	3408.69
0.0021021 	3398.86
0.00215215 	3394.75
0.0022022 	3396.4
0.00225225 	3403.19
0.0023023 	3413.89
0.00235235 	3426.81
0.0024024 	3440.16
0.00245245 	3452.3
0.0025025 	3461.92
0.00255255 	3468.32
0.0026026 	3471.4
0.00265265 	3471.64
0.0027027 	3469.92
0.00275275 	3467.25
0.0028028 	3464.59
0.00285285 	3462.6
0.0029029 	3461.63
0.00295295 	3461.63
0.003003 	3462.32
0.00305305 	3463.21
0.0031031 	3463.77
0.00315315 	3463.55
0.0032032 	3462.21
0.00325325 	3459.55
0.0033033 	3455.59
0.00335335 	3450.47
0.0034034 	3444.37
0.00345345 	3437.54
0.0035035 	3430.26
0.00355355 	3422.77
0.0036036 	3415.19
0.00365365 	3407.76
0.0037037 	3400.59
0.00375375 	3393.71
0.0038038 	3387.15
0.00385385 	3381
0.0039039 	3375.32
0.00395395 	3370.18
0.004004 	3365.55
0.00405405 	3361.49
0.0041041 	3357.97
0.00415415 	3354.99
0.0042042 	3352.46
0.00425425 	3350.22
0.0043043 	3348.13
0.00435435 	3345.97
0.0044044 	3343.5
0.00445445 	3340.48
0.0045045 	3336.61
0.00455455 	3331.76
0.0046046 	3325.78
0.00465465 	3318.49
0.0047047 	3309.98
0.00475475 	3300.36
0.0048048 	3289.8
0.00485485 	3278.56
0.0049049 	3266.92
0.00495495 	3255.33
0.00500501 	3244.18
0.00505506 	3233.88
0.00510511 	3224.94
0.00515516 	3217.94
0.00520521 	3213.25
0.00525526 	3211.28
0.00530531 	3212.34
0.00535536 	3216.64
0.00540541 	3223.66
0.00545546 	3232.79
0.00550551 	3243.12
0.00555556 	3253.35
0.00560561 	3262.2
0.00565566 	3268.62
0.00570571 	3271.57
0.00575576 	3270.83
0.00580581 	3266.62
0.00585586 	3259.28
0.00590591 	3249.61
0.00595596 	3238.76
0.00600601 	3227.88
0.00605606 	3218.68
0.00610611 	3212.65
0.00615616 	3211.27
0.00620621 	3216.26
0.00625626 	3226.81
0.00630631 	3241.37
0.00635636 	3256.04
0.00640641 	3265.46
0.00645646 	3264.13
0.00650651 	3246.83
0.00655656 	3215.07
0.00660661 	3172.31
0.00665666 	3126.44
0.00670671 	3082.53
0.00675676 	3040.66
0.00680681 	2997.62
0.00685686 	2985.8
0.00690691 	2985.8
0.00695696 	2985.8
0.00700701 	2985.8
0.00705706 	2985.8
0.00710711 	2985.8
0.00715716 	2985.8
0.00720721 	2985.8
0.00725726 	2985.8
0.00730731 	2985.8
0.00735736 	2985.8
0.00740741 	2985.8
0.00745746 	2985.8
0.00750751 	2985.8
0.00755756 	2985.8
0.00760761 	2985.8
0.00765766 	2985.8
0.00770771 	2985.8
0.00775776 	2985.8
0.00780781 	2985.8
0.00785786 	2985.8
0.00790791 	2985.8
0.00795796 	2985.8
0.00800801 	2985.8
0.00805806 	2985.8
0.00810811 	2985.8
0.00815816 	2985.8
0.00820821 	2985.8
0.00825826 	2985.8
0.00830831 	2985.8
0.00835836 	2985.8
0.00840841 	2985.8
0.00845846 	2985.8
0.00850851 	2985.8
0.00855856 	2985.8
0.00860861 	2985.8
0.00865866 	2985.8
0.00870871 	2985.8
0.00875876 	2985.8
0.00880881 	2985.8
0.00885886 	2985.8
0.00890891 	2985.8
0.00895896 	2985.8
0.00900901 	2985.8
0.00905906 	2985.8
0.00910911 	2985.8
0.00915916 	2985.8
0.00920921 	2985.8
0.00925926 	2985.8
0.00930931 	2985.8
0.00935936 	2985.8
0.00940941 	2985.8
0.00945946 	2985.8
0.00950951 	2985.8
0.00955956 	2985.8
0.00960961 	2985.8
0.00965966 	2985.8
0.00970971 	2985.8
0.00975976 	2985.8
0.00980981 	2985.8
0.00985986 	2985.8
0.00990991 	2985.8
0.00995996 	2985.8
0.01001 	2985.8
0.0100601 	2985.8
0.0101101 	2985.8
0.0101602 	2985.8
0.0102102 	2985.8
0.0102603 	2985.8
0.0103103 	2985.8
0.0103604 	2985.8
0.0104104 	2985.8
0.0104605 	2985.8
0.0105105 	2985.8
0.0105606 	2985.8
0.0106106 	2985.8
0.0106607 	2985.8
0.0107107 	2985.8
0.0107608 	2985.8
0.0108108 	2985.8
0.0108609 	2985.8
0.0109109 	2985.8
0.010961 	2985.8
0.011011 	2985.8
0.0110611 	2985.8
0.0111111 	2985.8
0.0111612 	2985.8
0.0112112 	2985.8
0.0112613 	2985.8
0.0113113 	2985.8
0.0113614 	2985.8
0.0114114 	2985.8
0.0114615 	2985.8
0.0115115 	2985.8
0.0115616 	2985.8
0.0116116 	2985.8
0.0116617 	2985.8
0.0117117 	2985.8
0.0117618 	2985.8
0.0118118 	2985.8
0.0118619 	2985.8
0.0119119 	2985.8
0.011962 	2985.8
0.012012 	2985.8
0.0120621 	2985.8
0.0121121 	2985.8
0.0121622 	2985.8
0.0122122 	2985.8
0.0122623 	2985.8
0.0123123 	2985.8
0.0123624 	2985.8
0.0124124 	2985.8
0.0124625 	2985.8
0.0125125 	2985.8
0.0125626 	2985.8
0.0126126 	2985.8
0.0126627 	2985.8
0.0127127 	2985.8
0.0127628 	2985.8
0.0128128 	2985.8
0.0128629 	2985.8
0.0129129 	2985.8
0.012963 	2985.8
0.013013 	2985.8
0.0130631 	2985.8
0.0131131 	2985.8
0.0131632 	2985.8
0.0132132 	2985.8
0.0132633 	2985.8
0.0133133 	2985.8
0.0133634 	2985.8
0.0134134 	2985.8
0.0134635 	2985.8
0.0135135 	2985.8
0.0135636 	2985.8
0.0136136 	2985.8
0.0136637 	2985.8
0.0137137 	2985.8
0.0137638 	2985.8
0.0138138 	2985.8
0.0138639 	2985.8
0.0139139 	2985.8
0.013964 	2985.8
0.014014 	2985.8
0.0140641 	2985.8
0.0141141 	2985.8
0.0141642 	2985.8
0.0142142 	2985.8
0.0142643 	2985.8
0.0143143 	2985.8
0.0143644 	2985.8
0.0144144 	2985.8
0.0144645 	2985.8
0.0145145 	2985.8
0.0145646 	2985.8
0.0146146 	2985.8
0.0146647 	2985.8
0.0147147 	2985.8
0.0147648 	2985.8
0.0148148 	2985.8
0.0148649 	2985.8
0.0149149 	2985.8
0.014965 	2985.8
0.015015 	2985.8
0.0150651 	2985.8
0.0151151 	2985.8
0.0151652 	2985.8
0.0152152 	2985.8
0.0152653 	2985.8
0.0153153 	2985.8
0.0153654 	2985.8
0.0154154 	2985.8
0.0154655 	2985.8
0.0155155 	2985.8
0.0155656 	2985.8
0.0156156 	2985.8
0.0156657 	2985.8
0.0157157 	2985.8
0.0157658 	2985.8
0.0158158 	2985.8
0.0158659 	2985.8
0.0159159 	2985.8
0.015966 	2985.8
0.016016 	2985.8
0.0160661 	2985.8
0.0161161 	2985.8
0.0161662 	2985.8
0.0162162 	2985.8
0.0162663 	2985.8
0.0163163 	2985.8
0.0163664 	2985.8
0.0164164 	2985.8
0.0164665 	2985.8
0.0165165 	2985.8
0.0165666 	2985.8
0.0166166 	2985.8
0.0166667 	2985.8
0.0167167 	2985.8
0.0167668 	2985.8
0.0168168 	2985.8
0.0168669 	2985.8
0.0169169 	2985.8
0.016967 	2985.8
0.017017 	2985.8
0.0170671 	2985.8
0.0171171 	2985.8
0.0171672 	2985.8
0.0172172 	2985.8
0.0172673 	2985.8
0.0173173 	2985.8
0.0173674 	2985.8
0.0174174 	2985.8
0.0174675 	2985.8
0.0175175 	2985.8
0.0175676 	2985.8
0.0176176 	2985.8
0.0176677 	2985.8
0.0177177 	2985.8
0.0177678 	2985.8
0.0178178 	2985.8
0.0178679 	2985.8
0.0179179 	2985.8
0.017968 	2985.8
0.018018 	2985.8
0.0180681 	2985.8
0.0181181 	2985.8
0.0181682 	2985.8
0.0182182 	2985.8
0.0182683 	2985.8
0.0183183 	2985.8
0.0183684 	2985.8
0.0184184 	2985.8
0.0184685 	2985.8
0.0185185 	2985.8
0.0185686 	2985.8
0.0186186 	2985.8
0.0186687 	2985.8
0.0187187 	2985.8
0.0187688 	2985.8
0.0188188 	2985.8
0.0188689 	2985.8
0.0189189 	2985.8
0.018969 	2985.8
0.019019 	2985.8
0.0190691 	2985.8
0.0191191 	2985.8
0.0191692 	2985.8
0.0192192 	2985.8
0.0192693 	2985.8
0.0193193 	2985.8
0.0193694 	2985.8
0.0194194 	2985.8
0.0194695 	2985.8
0.0195195 	2985.8
0.0195696 	2985.8
0.0196196 	2985.8
0.0196697 	2985.8
0.0197197 	2985.8
0.0197698 	2985.8
0.0198198 	2985.8
0.0198699 	2985.8
0.0199199 	2985.8
0.01997 	2985.8
0.02002 	2985.8
0.0200701 	2985.8
0.0201201 	2985.8
0.0201702 	2985.8
0.0202202 	2985.8
0.0202703 	2985.8
0.0203203 	2985.8
0.0203704 	2985.8
0.0204204 	2985.8
0.0204705 	2985.8
0.0205205 	2985.8
0.0205706 	2985.8
0.0206206 	2985.8
0.0206707 	2985.8
0.0207207 	2985.8
0.0207708 	2985.8
0.0208208 	2985.8
0.0208709 	2985.8
0.0209209 	2985.8
0.020971 	2985.8
0.021021 	2985.8
0.0210711 	2985.8
0.0211211 	2985.8
0.0211712 	2985.8
0.0212212 	2985.8
0.0212713 	2985.8
0.0213213 	2985.8
0.0213714 	2985.8
0.0214214 	2985.8
0.0214715 	2985.8
0.0215215 	2985.8
0.0215716 	2985.8
0.0216216 	2985.8
0.0216717 	2985.8
0.0217217 	2985.8
0.0217718 	2985.8
0.0218218 	2985.8
0.0218719 	2985.8
0.0219219 	2985.8
0.021972 	2985.8
0.022022 	2985.8
0.0220721 	2985.8
0.0221221 	2985.8
0.0221722 	2985.8
0.0222222 	2985.8
0.0222723 	2985.8
0.0223223 	2985.8
0.0223724 	2985.8
0.0224224 	2985.8
0.0224725 	2985.8
0.0225225 	2985.8
0.0225726 	2985.8
0.0226226 	2985.8
0.0226727 	2985.8
0.0227227 	2985.8
0.0227728 	2985.8
0.0228228 	2985.8
0.0228729 	2985.8
0.0229229 	2985.8
0.022973 	2985.8
0.023023 	2985.8
0.0230731 	2985.8
0.0231231 	2985.8
0.0231732 	2985.8
0.0232232 	2985.8
0.0232733 	2985.8
0.0233233 	2985.8
0.0233734 	2985.8
0.0234234 	2985.8
0.0234735 	2985.8
0.0235235 	2985.8
0.0235736 	2985.8
0.0236236 	2985.8
0.0236737 	2985.8
0.0237237 	2985.8
0.0237738 	2985.8
0.0238238 	2985.8
0.0238739 	2985.8
0.0239239 	2985.8
0.023974 	2985.8
0.024024 	2985.8
0.0240741 	2985.8
0.0241241 	2985.8
0.0241742 	2985.8
0.0242242 	2985.8
0.0242743 	2985.8
0.0243243 	2985.8
0.0243744 	2985.8
0.0244244 	2985.8
0.0244745 	2985.8
0.0245245 	2985.8
0.0245746 	2985.8
0.0246246 	2985.8
0.0246747 	2985.8
0.0247247 	2985.8
0.0247748 	2985.8
0.0248248 	2985.8
0.0248749 	2985.8
0.0249249 	2985.8
0.024975 	2985.8
0.025025 	2985.8
0.0250751 	2985.8
0.0251251 	2985.8
0.0251752 	2985.8
0.0252252 	2985.8
0.0252753 	2985.8
0.0253253 	2985.8
0.0253754 	2985.8
0.0254254 	2985.8
0.0254755 	2985.8
0.0255255 	2985.8
0.0255756 	2985.8
0.0256256 	2985.8
0.0256757 	2985.8
0.0257257 	2985.8
0.0257758 	2985.8
0.0258258 	2985.8
0.0258759 	2985.8
0.0259259 	2985.8
0.025976 	2985.8
0.026026 	2985.8
0.0260761 	2985.8
0.0261261 	2985.8
0.0261762 	2985.8
0.0262262 	2985.8
0.0262763 	2985.8
0.0263263 	2985.8
0.0263764 	2985.8
0.0264264 	2985.8
0.0264765 	2985.8
0.0265265 	2985.8
0.0265766 	2985.8
0.0266266 	2985.8
0.0266767 	2985.8
0.0267267 	2985.8
0.0267768 	2985.8
0.0268268 	2985.8
0.0268769 	2985.8
0.0269269 	2985.8
0.026977 	2985.8
0.027027 	2985.8
0.0270771 	2985.8
0.0271271 	2985.8
0.0271772 	2985.8
0.0272272 	2985.8
0.0272773 	2985.8
0.0273273 	2985.8
0.0273774 	2985.8
0.0274274 	2985.8
0.0274775 	2985.8
0.0275275 	2985.8
0.0275776 	2985.8
0.0276276 	2985.8
0.0276777 	2985.8
0.0277277 	2985.8
0.0277778 	2985.8
0.0278278 	2985.8
0.0278779 	2985.8
0.0279279 	2985.8
0.027978 	2985.8
0.028028 	2985.8
0.0280781 	2985.8
0.0281281 	2985.8
0.0281782 	2985.8
0.0282282 	2985.8
0.0282783 	2985.8
0.0283283 	2985.8
0.0283784 	2985.8
0.0284284 	2985.8
0.0284785 	2985.8
0.0285285 	2985.8
0.0285786 	2985.8
0.0286286 	2985.8
0.0286787 	2985.8
0.0287287 	2985.8
0.0287788 	2985.8
0.0288288 	2985.8
0.0288789 	2985.8
0.0289289 	2985.8
0.028979 	2985.8
0.029029 	2985.8
0.0290791 	2985.8
0.0291291 	2985.8
0.0291792 	2985.8
0.0292292 	2985.8
0.0292793 	2985.8
0.0293293 	2985.8
0.0293794 	2985.8
0.0294294 	2985.8
0.0294795 	2985.8
0.0295295 	2985.8
0.0295796 	2985.8
0.0296296 	2985.8
0.0296797 	2985.8
0.0297297 	2985.8
0.0297798 	2985.8
0.0298298 	2985.8
0.0298799 	2985.8
0.0299299 	2985.8
0.02998 	2985.8
0.03003 	2985.8
0.0300801 	2985.8
0.0301301 	2985.8
0.0301802 	2985.8
0.0302302 	2985.8
0.0302803 	2985.8
0.0303303 	2985.8
0.0303804 	2985.8
0.0304304 	2985.8
0.0304805 	2985.8
0.0305305 	2985.8
0.0305806 	2985.8
0.0306306 	2985.8
0.0306807 	2985.8
0.0307307 	2985.8
0.0307808 	2985.8
0.0308308 	2985.8
0.0308809 	2985.8
0.0309309 	2985.8
0.030981 	2985.8
0.031031 	2985.8
0.0310811 	2985.8
0.0311311 	2985.8
0.0311812 	2985.8
0.0312312 	2985.8
0.0312813 	2985.8
0.0313313 	2985.8
0.0313814 	2985.8
0.0314314 	2985.8
0.0314815 	2985.8
0.0315315 	2985.8
0.0315816 	2985.8
0.0316316 	2985.8
0.0316817 	2985.8
0.0317317 	2985.8
0.0317818 	2985.8
0.0318318 	2985.8
0.0318819 	2985.8
0.0319319 	2985.8
0.031982 	2985.8
0.032032 	2985.8
0.0320821 	2985.8
0.0321321 	2985.8
0.0321822 	2985.8
0.0322322 	2985.8
0.0322823 	2985.8
0.0323323 	2985.8
0.0323824 	2985.8
0.0324324 	2985.8
0.0324825 	2985.8
0.0325325 	2985.8
0.0325826 	2985.8
0.0326326 	2985.8
0.0326827 	2985.8
0.0327327 	2985.8
0.0327828 	2985.8
0.0328328 	2985.8
0.0328829 	2985.8
0.0329329 	2985.8
0.032983 	2985.8
0.033033 	2985.8
0.0330831 	2985.8
0.0331331 	2985.8
0.0331832 	2985.8
0.0332332 	2985.8
0.0332833 	2985.8
0.0333333 	2985.8
0.0333834 	2985.8
0.0334334 	2985.8
0.0334835 	2985.8
0.0335335 	2985.8
0.0335836 	2985.8
0.0336336 	2985.8
0.0336837 	2985.8
0.0337337 	2985.8
0.0337838 	2985.8
0.0338338 	2985.8
0.0338839 	2985.8
0.0339339 	2985.8
0.033984 	2985.8
0.034034 	2985.8
0.0340841 	2985.8
0.0341341 	2985.8
0.0341842 	2985.8
0.0342342 	2985.8
0.0342843 	2985.8
0.0343343 	2985.8
0.0343844 	2985.8
0.0344344 	2985.8
0.0344845 	2985.8
0.0345345 	2985.8
0.0345846 	2985.8
0.0346346 	2985.8
0.0346847 	2985.8
0.0347347 	2985.8
0.0347848 	2985.8
0.0348348 	2985.8
0.0348849 	2985.8
0.0349349 	2985.8
0.034985 	2985.8
0.035035 	2985.8
0.0350851 	2985.8
0.0351351 	2985.8
0.0351852 	2985.8
0.0352352 	2985.8
0.0352853 	2985.8
0.0353353 	2985.8
0.0353854 	2985.8
0.0354354 	2985.8
0.0354855 	2985.8
0.0355355 	2985.8
0.0355856 	2985.8
0.0356356 	2985.8
0.0356857 	2985.8
0.0357357 	2985.8
0.0357858 	2985.8
0.0358358 	2985.8
0.0358859 	2985.8
0.0359359 	2985.8
0.035986 	2985.8
0.036036 	2985.8
0.0360861 	2985.8
0.0361361 	2985.8
0.0361862 	2985.8
0.0362362 	2985.8
0.0362863 	2985.8
0.0363363 	2985.8
0.0363864 	2985.8
0.0364364 	2985.8
0.0364865 	2985.8
0.0365365 	2985.8
0.0365866 	2985.8
0.0366366 	2985.8
0.0366867 	2985.8
0.0367367 	2985.8
0.0367868 	2985.8
0.0368368 	2985.8
0.0368869 	2985.8
0.0369369 	2985.8
0.036987 	2985.8
0.037037 	2985.8
0.0370871 	2985.8
0.0371371 	2985.8
0.0371872 	2985.8
0.0372372 	2985.8
0.0372873 	2985.8
0.0373373 	2985.8
0.0373874 	2985.8
0.0374374 	2985.8
0.0374875 	2985.8
0.0375375 	2985.8
0.0375876 	2985.8
0.0376376 	2985.8
0.0376877 	2985.8
0.0377377 	2985.8
0.0377878 	2985.8
0.0378378 	2985.8
0.0378879 	2985.8
0.0379379 	2985.8
0.037988 	2985.8
0.038038 	2985.8
0.0380881 	2985.8
0.0381381 	2985.8
0.0381882 	2985.8
0.0382382 	2985.8
0.0382883 	2985.8
0.0383383 	2985.8
0.0383884 	2985.8
0.0384384 	2985.8
0.0384885 	2985.8
0.0385385 	2985.8
0.0385886 	2985.8
0.0386386 	2985.8
0.0386887 	2985.8
0.0387387 	2985.8
0.0387888 	2985.8
0.0388388 	2985.8
0.0388889 	2985.8
0.0389389 	2985.8
0.038989 	2985.8
0.039039 	2985.8
0.0390891 	2985.8
0.0391391 	2985.8
0.0391892 	2985.8
0.0392392 	2985.8
0.0392893 	2985.8
0.0393393 	2985.8
0.0393894 	2985.8
0.0394394 	2985.8
0.0394895 	2985.8
0.0395395 	2985.8
0.0395896 	2985.8
0.0396396 	2985.8
0.0396897 	2985.8
0.0397397 	2985.8
0.0397898 	2985.8
0.0398398 	2985.8
0.0398899 	2985.8
0.0399399 	2985.8
0.03999 	2985.8
0.04004 	2985.8
0.0400901 	2985.8
0.0401401 	2985.8
0.0401902 	2985.8
0.0402402 	2985.8
0.0402903 	2985.8
0.0403403 	2985.8
0.0403904 	2985.8
0.0404404 	2985.8
0.0404905 	2985.8
0.0405405 	2985.8
0.0405906 	2985.8
0.0406406 	2985.8
0.0406907 	2985.8
0.0407407 	2985.8
0.0407908 	2985.8
0.0408408 	2985.8
0.0408909 	2985.8
0.0409409 	2985.8
0.040991 	2985.8
0.041041 	2985.8
0.0410911 	2985.8
0.0411411 	2985.8
0.0411912 	2985.8
0.0412412 	2985.8
0.0412913 	2985.8
0.0413413 	2985.8
0.0413914 	2985.8
0.0414414 	2985.8
0.0414915 	2985.8
0.0415415 	2985.8
0.0415916 	2985.8
0.0416416 	2985.8
0.0416917 	2985.8
0.0417417 	2985.8
0.0417918 	2985.8
0.0418418 	2985.8
0.0418919 	2985.8
0.0419419 	2985.8
0.041992 	2985.8
0.042042 	2985.8
0.0420921 	2985.8
0.0421421 	2985.8
0.0421922 	2985.8
0.0422422 	2985.8
0.0422923 	2985.8
0.0423423 	2985.8
0.0423924 	2985.8
0.0424424 	2985.8
0.0424925 	2985.8
0.0425425 	2985.8
0.0425926 	2985.8
0.0426426 	2985.8
0.0426927 	2985.8
0.0427427 	2985.8
0.0427928 	2985.8
0.0428428 	2985.8
0.0428929 	2985.8
0.0429429 	2985.8
0.042993 	2985.8
0.043043 	2985.8
0.0430931 	2985.8
0.0431431 	2985.8
0.0431932 	2985.8
0.0432432 	2985.8
0.0432933 	2985.8
0.0433433 	2985.8
0.0433934 	2985.8
0.0434434 	2985.8
0.0434935 	2985.8
0.0435435 	2985.8
0.0435936 	2985.8
0.0436436 	2985.8
0.0436937 	2985.8
0.0437437 	2985.8
0.0437938 	2985.8
0.0438438 	2985.8
0.0438939 	2985.8
0.0439439 	2985.8
0.043994 	2985.8
0.044044 	2985.8
0.0440941 	2985.8
0.0441441 	2985.8
0.0441942 	2985.8
0.0442442 	2985.8
0.0442943 	2985.8
0.0443443 	2985.8
0.0443944 	2985.8
0.0444444 	2985.8
0.0444945 	2985.8
0.0445445 	2985.8
0.0445946 	2985.8
0.0446446 	2985.8
0.0446947 	2985.8
0.0447447 	2985.8
0.0447948 	2985.8
0.0448448 	2985.8
0.0448949 	2985.8
0.0449449 	2985.8
0.044995 	2985.8
0.045045 	2985.8
0.0450951 	2985.8
0.0451451 	2985.8
0.0451952 	2985.8
0.0452452 	2985.8
0.0452953 	2985.8
0.0453453 	2985.8
0.0453954 	2985.8
0.0454454 	2985.8
0.0454955 	2985.8
0.0455455 	2985.8
0.0455956 	2985.8
0.0456456 	2985.8
0.0456957 	2985.8
0.0457457 	2985.8
0.0457958 	2985.8
0.0458458 	2985.8
0.0458959 	2985.8
0.0459459 	2985.8
0.045996 	2985.8
0.046046 	2985.8
0.0460961 	2985.8
0.0461461 	2985.8
0.0461962 	2985.8
0.0462462 	2985.8
0.0462963 	2985.8
0.0463463 	2985.8
0.0463964 	2985.8
0.0464464 	2985.8
0.0464965 	2985.8
0.0465465 	2985.8
0.0465966 	2985.8
0.0466466 	2985.8
0.0466967 	2985.8
0.0467467 	2985.8
0.0467968 	2985.8
0.0468468 	2985.8
0.0468969 	2985.8
0.0469469 	2985.8
0.046997 	2985.8
0.047047 	2985.8
0.0470971 	2985.8
0.0471471 	2985.8
0.0471972 	2985.8
0.0472472 	2985.8
0.0472973 	2985.8
0.0473473 	2985.8
0.0473974 	2985.8
0.0474474 	2985.8
0.0474975 	2985.8
0.0475475 	2985.8
0.0475976 	2985.8
0.0476476 	2985.8
0.0476977 	2985.8
0.0477477 	2985.8
0.0477978 	2985.8
0.0478478 	2985.8
0.0478979 	2985.8
0.0479479 	2985.8
0.047998 	2985.8
0.048048 	2985.8
0.0480981 	2985.8
0.0481481 	2985.8
0.0481982 	2985.8
0.0482482 	2985.8
0.0482983 	2985.8
0.0483483 	2985.8
0.0483984 	2985.8
0.0484484 	2985.8
0.0484985 	2985.8
0.0485485 	2985.8
0.0485986 	2985.8
0.0486486 	2985.8
0.0486987 	2985.8
0.0487487 	2985.8
0.0487988 	2985.8
0.0488488 	2985.8
0.0488989 	2985.8
0.0489489 	2985.8
0.048999 	2985.8
0.049049 	2985.8
0.0490991 	2985.8
0.0491491 	2985.8
0.0491992 	2985.8
0.0492492 	2985.8
0.0492993 	2985.8
0.0493493 	2985.8
0.0493994 	2985.8
0.0494494 	2985.8
0.0494995 	2985.8
0.0495495 	2985.8
0.0495996 	2985.8
0.0496496 	2985.8
0.0496997 	2985.8
0.0497497 	2985.8
0.0497998 	2985.8
0.0498498 	2985.8
0.0498999 	2985.8
0.0499499 	2985.8
0.05 	2985.8
